; p2_GMX.itp created by acpype (Rev: 0) on Sat Aug  5 05:42:17 2023

[ atomtypes ]
;name   bond_type     mass     charge   ptype   sigma         epsilon       Amb
 cc       cc          0.00000  0.00000   A     3.39967e-01   3.59824e-01 ; 1.91  0.0860
 cd       cd          0.00000  0.00000   A     3.39967e-01   3.59824e-01 ; 1.91  0.0860
 os       os          0.00000  0.00000   A     3.00001e-01   7.11280e-01 ; 1.68  0.1700
 ha       ha          0.00000  0.00000   A     2.59964e-01   6.27600e-02 ; 1.46  0.0150
 c3       c3          0.00000  0.00000   A     3.39967e-01   4.57730e-01 ; 1.91  0.1094
 h1       h1          0.00000  0.00000   A     2.47135e-01   6.56888e-02 ; 1.39  0.0157
 n3       n3          0.00000  0.00000   A     3.25000e-01   7.11280e-01 ; 1.82  0.1700
 hn       hn          0.00000  0.00000   A     1.06908e-01   6.56888e-02 ; 0.60  0.0157
 s6       s6          0.00000  0.00000   A     3.56359e-01   1.04600e+00 ; 2.00  0.2500
 o        o           0.00000  0.00000   A     2.95992e-01   8.78640e-01 ; 1.66  0.2100
 ca       ca          0.00000  0.00000   A     3.39967e-01   3.59824e-01 ; 1.91  0.0860
 nb       nb          0.00000  0.00000   A     3.25000e-01   7.11280e-01 ; 1.82  0.1700
 nh       nh          0.00000  0.00000   A     3.25000e-01   7.11280e-01 ; 1.82  0.1700
 h5       h5          0.00000  0.00000   A     2.42146e-01   6.27600e-02 ; 1.36  0.0150
 cl       cl          0.00000  0.00000   A     3.47094e-01   1.10876e+00 ; 1.95  0.2650
 f        f           0.00000  0.00000   A     3.11815e-01   2.55224e-01 ; 1.75  0.0610

[ moleculetype ]
;name            nrexcl
 LIG               3

[ atoms ]
;   nr  type  resi  res  atom  cgnr     charge      mass       ; qtot   bond_type
     1   cc     1   LIG    C1    1     0.043591     12.01000 ; qtot 0.044
     2   cd     1   LIG    C2    2    -0.182079     12.01000 ; qtot -0.138
     3   cd     1   LIG    C3    3    -0.284583     12.01000 ; qtot -0.423
     4   cc     1   LIG    C4    4     0.120375     12.01000 ; qtot -0.303
     5   os     1   LIG    O5    5    -0.076943     16.00000 ; qtot -0.380
     6   ha     1   LIG    H6    6     0.166527      1.00800 ; qtot -0.213
     7   ha     1   LIG    H7    7     0.189364      1.00800 ; qtot -0.024
     8   c3     1   LIG    C8    8    -0.093774     12.01000 ; qtot -0.118
     9   h1     1   LIG    H9    9     0.099497      1.00800 ; qtot -0.018
    10   h1     1   LIG   H10   10     0.116743      1.00800 ; qtot 0.099
    11   n3     1   LIG   N11   11    -0.436622     14.01000 ; qtot -0.338
    12   hn     1   LIG   H12   12     0.267963      1.00800 ; qtot -0.070
    13   c3     1   LIG   C13   13     0.066190     12.01000 ; qtot -0.004
    14   h1     1   LIG   H14   14     0.042140      1.00800 ; qtot 0.038
    15   h1     1   LIG   H15   15     0.076872      1.00800 ; qtot 0.115
    16   c3     1   LIG   C16   16    -0.192923     12.01000 ; qtot -0.078
    17   h1     1   LIG   H17   17     0.102516      1.00800 ; qtot 0.025
    18   h1     1   LIG   H18   18     0.118258      1.00800 ; qtot 0.143
    19   s6     1   LIG   S19   19     1.010163     32.06000 ; qtot 1.153
    20   c3     1   LIG   C20   20    -0.297845     12.01000 ; qtot 0.855
    21   h1     1   LIG   H21   21     0.158122      1.00800 ; qtot 1.014
    22   h1     1   LIG   H22   22     0.108783      1.00800 ; qtot 1.122
    23   h1     1   LIG   H23   23     0.064139      1.00800 ; qtot 1.186
    24    o     1   LIG   O24   24    -0.608561     16.00000 ; qtot 0.578
    25    o     1   LIG   O25   25    -0.578134     16.00000 ; qtot -0.000
    26   ca     1   LIG   C26   26     0.056989     12.01000 ; qtot 0.057
    27   ca     1   LIG   C27   27    -0.175878     12.01000 ; qtot -0.119
    28   ca     1   LIG   C28   28    -0.212140     12.01000 ; qtot -0.331
    29   ca     1   LIG   C29   29    -0.262877     12.01000 ; qtot -0.594
    30   ha     1   LIG   H30   30     0.163854      1.00800 ; qtot -0.430
    31   ca     1   LIG   C31   31    -0.220343     12.01000 ; qtot -0.651
    32   ha     1   LIG   H32   32     0.095036      1.00800 ; qtot -0.556
    33   ca     1   LIG   C33   33     0.582770     12.01000 ; qtot 0.027
    34   ha     1   LIG   H34   34     0.173211      1.00800 ; qtot 0.200
    35   ca     1   LIG   C35   35     0.624241     12.01000 ; qtot 0.825
    36   nb     1   LIG   N36   36    -0.777465     14.01000 ; qtot 0.047
    37   nb     1   LIG   N37   37    -0.660530     14.01000 ; qtot -0.613
    38   nh     1   LIG   N38   38    -0.497859     14.01000 ; qtot -1.111
    39   ca     1   LIG   C39   39     0.619328     12.01000 ; qtot -0.492
    40   hn     1   LIG   H40   40     0.358736      1.00800 ; qtot -0.133
    41   h5     1   LIG   H41   41     0.035513      1.00800 ; qtot -0.098
    42   ca     1   LIG   C42   42     0.036665     12.01000 ; qtot -0.061
    43   ca     1   LIG   C43   43    -0.075122     12.01000 ; qtot -0.136
    44   ca     1   LIG   C44   44    -0.104803     12.01000 ; qtot -0.241
    45   ca     1   LIG   C45   45    -0.316677     12.01000 ; qtot -0.558
    46   ha     1   LIG   H46   46     0.136008      1.00800 ; qtot -0.422
    47   ca     1   LIG   C47   47    -0.073659     12.01000 ; qtot -0.495
    48   ha     1   LIG   H48   48     0.172697      1.00800 ; qtot -0.323
    49   ca     1   LIG   C49   49     0.381855     12.01000 ; qtot 0.059
    50   ha     1   LIG   H50   50     0.181841      1.00800 ; qtot 0.241
    51   cl     1   LIG  CL51   51    -0.104395     35.45000 ; qtot 0.137
    52   os     1   LIG   O52   52    -0.344328     16.00000 ; qtot -0.208
    53   c3     1   LIG   C53   53     0.005020     12.01000 ; qtot -0.203
    54   h1     1   LIG   H54   54     0.087828      1.00800 ; qtot -0.115
    55   h1     1   LIG   H55   55     0.128280      1.00800 ; qtot 0.014
    56   ca     1   LIG   C56   56    -0.041262     12.01000 ; qtot -0.028
    57   ca     1   LIG   C57   57    -0.143931     12.01000 ; qtot -0.172
    58   ca     1   LIG   C58   58    -0.110673     12.01000 ; qtot -0.282
    59   ca     1   LIG   C59   59    -0.200142     12.01000 ; qtot -0.482
    60   ha     1   LIG   H60   60     0.134596      1.00800 ; qtot -0.348
    61   ca     1   LIG   C61   61     0.219824     12.01000 ; qtot -0.128
    62   ha     1   LIG   H62   62     0.157067      1.00800 ; qtot 0.029
    63   ca     1   LIG   C63   63    -0.169469     12.01000 ; qtot -0.140
    64   ha     1   LIG   H64   64     0.170743      1.00800 ; qtot 0.030
    65    f     1   LIG   F65   65    -0.189501     19.00000 ; qtot -0.159
    66   ha     1   LIG   H66   66     0.159173      1.00800 ; qtot -0.000

[ bonds ]
;   ai     aj funct   r             k
     1      2   1    1.3729e-01    4.1915e+05 ;     C1 - C2    
     1      5   1    1.3620e-01    3.2309e+05 ;     C1 - O5    
     1      8   1    1.5015e-01    2.8016e+05 ;     C1 - C8    
     2      3   1    1.4278e-01    3.5129e+05 ;     C2 - C3    
     2      6   1    1.0837e-01    2.9213e+05 ;     C2 - H6    
     3      4   1    1.3729e-01    4.1915e+05 ;     C3 - C4    
     3      7   1    1.0837e-01    2.9213e+05 ;     C3 - H7    
     4      5   1    1.3620e-01    3.2309e+05 ;     C4 - O5    
     4     26   1    1.4555e-01    3.2225e+05 ;     C4 - C26   
     8      9   1    1.0969e-01    2.7665e+05 ;     C8 - H9    
     8     10   1    1.0969e-01    2.7665e+05 ;     C8 - H10   
     8     11   1    1.4647e-01    2.7271e+05 ;     C8 - N11   
    11     12   1    1.0190e-01    3.2836e+05 ;    N11 - H12   
    11     13   1    1.4647e-01    2.7271e+05 ;    N11 - C13   
    13     14   1    1.0969e-01    2.7665e+05 ;    C13 - H14   
    13     15   1    1.0969e-01    2.7665e+05 ;    C13 - H15   
    13     16   1    1.5375e-01    2.5179e+05 ;    C13 - C16   
    16     17   1    1.0969e-01    2.7665e+05 ;    C16 - H17   
    16     18   1    1.0969e-01    2.7665e+05 ;    C16 - H18   
    16     19   1    1.8075e-01    1.9539e+05 ;    C16 - S19   
    19     20   1    1.8075e-01    1.9539e+05 ;    S19 - C20   
    19     24   1    1.4533e-01    4.2903e+05 ;    S19 - O24   
    19     25   1    1.4533e-01    4.2903e+05 ;    S19 - O25   
    20     21   1    1.0969e-01    2.7665e+05 ;    C20 - H21   
    20     22   1    1.0969e-01    2.7665e+05 ;    C20 - H22   
    20     23   1    1.0969e-01    2.7665e+05 ;    C20 - H23   
    26     27   1    1.3984e-01    3.8585e+05 ;    C26 - C27   
    26     28   1    1.3984e-01    3.8585e+05 ;    C26 - C28   
    27     29   1    1.3984e-01    3.8585e+05 ;    C27 - C29   
    27     30   1    1.0860e-01    2.8937e+05 ;    C27 - H30   
    28     31   1    1.3984e-01    3.8585e+05 ;    C28 - C31   
    28     32   1    1.0860e-01    2.8937e+05 ;    C28 - H32   
    29     33   1    1.3984e-01    3.8585e+05 ;    C29 - C33   
    29     34   1    1.0860e-01    2.8937e+05 ;    C29 - H34   
    31     33   1    1.3984e-01    3.8585e+05 ;    C31 - C33   
    31     35   1    1.3984e-01    3.8585e+05 ;    C31 - C35   
    33     36   1    1.3390e-01    4.0836e+05 ;    C33 - N36   
    35     37   1    1.3390e-01    4.0836e+05 ;    C35 - N37   
    35     38   1    1.3859e-01    3.4970e+05 ;    C35 - N38   
    36     39   1    1.3390e-01    4.0836e+05 ;    N36 - C39   
    37     39   1    1.3390e-01    4.0836e+05 ;    N37 - C39   
    38     40   1    1.0121e-01    3.3857e+05 ;    N38 - H40   
    38     42   1    1.3859e-01    3.4970e+05 ;    N38 - C42   
    39     41   1    1.0878e-01    2.8719e+05 ;    C39 - H41   
    42     43   1    1.3984e-01    3.8585e+05 ;    C42 - C43   
    42     44   1    1.3984e-01    3.8585e+05 ;    C42 - C44   
    43     45   1    1.3984e-01    3.8585e+05 ;    C43 - C45   
    43     46   1    1.0860e-01    2.8937e+05 ;    C43 - H46   
    44     47   1    1.3984e-01    3.8585e+05 ;    C44 - C47   
    44     48   1    1.0860e-01    2.8937e+05 ;    C44 - H48   
    45     49   1    1.3984e-01    3.8585e+05 ;    C45 - C49   
    45     50   1    1.0860e-01    2.8937e+05 ;    C45 - H50   
    47     49   1    1.3984e-01    3.8585e+05 ;    C47 - C49   
    47     51   1    1.7502e-01    2.5573e+05 ;    C47 - CL51  
    49     52   1    1.3696e-01    3.1514e+05 ;    C49 - O52   
    52     53   1    1.4316e-01    2.5824e+05 ;    O52 - C53   
    53     54   1    1.0969e-01    2.7665e+05 ;    C53 - H54   
    53     55   1    1.0969e-01    2.7665e+05 ;    C53 - H55   
    53     56   1    1.5156e-01    2.6861e+05 ;    C53 - C56   
    56     57   1    1.3984e-01    3.8585e+05 ;    C56 - C57   
    56     58   1    1.3984e-01    3.8585e+05 ;    C56 - C58   
    57     59   1    1.3984e-01    3.8585e+05 ;    C57 - C59   
    57     60   1    1.0860e-01    2.8937e+05 ;    C57 - H60   
    58     61   1    1.3984e-01    3.8585e+05 ;    C58 - C61   
    58     62   1    1.0860e-01    2.8937e+05 ;    C58 - H62   
    59     63   1    1.3984e-01    3.8585e+05 ;    C59 - C63   
    59     64   1    1.0860e-01    2.8937e+05 ;    C59 - H64   
    61     63   1    1.3984e-01    3.8585e+05 ;    C61 - C63   
    61     65   1    1.3490e-01    2.9941e+05 ;    C61 - F65   
    63     66   1    1.0860e-01    2.8937e+05 ;    C63 - H66   

[ pairs ]
;   ai     aj    funct
     1      7      1 ;     C1 - H7    
     1     12      1 ;     C1 - H12   
     1     13      1 ;     C1 - C13   
     1     26      1 ;     C1 - C26   
     2      9      1 ;     C2 - H9    
     2     10      1 ;     C2 - H10   
     2     11      1 ;     C2 - N11   
     2     26      1 ;     C2 - C26   
     3     27      1 ;     C3 - C27   
     3     28      1 ;     C3 - C28   
     4      6      1 ;     C4 - H6    
     4     29      1 ;     C4 - C29   
     4     30      1 ;     C4 - H30   
     4     31      1 ;     C4 - C31   
     4     32      1 ;     C4 - H32   
     5      6      1 ;     O5 - H6    
     5      7      1 ;     O5 - H7    
     5      9      1 ;     O5 - H9    
     5     10      1 ;     O5 - H10   
     5     11      1 ;     O5 - N11   
     5     27      1 ;     O5 - C27   
     5     28      1 ;     O5 - C28   
     6      7      1 ;     H6 - H7    
     7     26      1 ;     H7 - C26   
     8      3      1 ;     C8 - C3    
     8      4      1 ;     C8 - C4    
     8      6      1 ;     C8 - H6    
     8     14      1 ;     C8 - H14   
     8     15      1 ;     C8 - H15   
     8     16      1 ;     C8 - C16   
     9     12      1 ;     H9 - H12   
     9     13      1 ;     H9 - C13   
    10     12      1 ;    H10 - H12   
    10     13      1 ;    H10 - C13   
    11     17      1 ;    N11 - H17   
    11     18      1 ;    N11 - H18   
    11     19      1 ;    N11 - S19   
    12     14      1 ;    H12 - H14   
    12     15      1 ;    H12 - H15   
    12     16      1 ;    H12 - C16   
    13     20      1 ;    C13 - C20   
    13     24      1 ;    C13 - O24   
    13     25      1 ;    C13 - O25   
    14     17      1 ;    H14 - H17   
    14     18      1 ;    H14 - H18   
    14     19      1 ;    H14 - S19   
    15     17      1 ;    H15 - H17   
    15     18      1 ;    H15 - H18   
    15     19      1 ;    H15 - S19   
    16     21      1 ;    C16 - H21   
    16     22      1 ;    C16 - H22   
    16     23      1 ;    C16 - H23   
    17     20      1 ;    H17 - C20   
    17     24      1 ;    H17 - O24   
    17     25      1 ;    H17 - O25   
    18     20      1 ;    H18 - C20   
    18     24      1 ;    H18 - O24   
    18     25      1 ;    H18 - O25   
    21     24      1 ;    H21 - O24   
    21     25      1 ;    H21 - O25   
    22     24      1 ;    H22 - O24   
    22     25      1 ;    H22 - O25   
    23     24      1 ;    H23 - O24   
    23     25      1 ;    H23 - O25   
    26     33      1 ;    C26 - C33   
    26     34      1 ;    C26 - H34   
    26     35      1 ;    C26 - C35   
    27     31      1 ;    C27 - C31   
    27     32      1 ;    C27 - H32   
    27     36      1 ;    C27 - N36   
    28     29      1 ;    C28 - C29   
    28     30      1 ;    C28 - H30   
    28     36      1 ;    C28 - N36   
    28     37      1 ;    C28 - N37   
    28     38      1 ;    C28 - N38   
    29     35      1 ;    C29 - C35   
    29     39      1 ;    C29 - C39   
    30     33      1 ;    H30 - C33   
    30     34      1 ;    H30 - H34   
    31     34      1 ;    C31 - H34   
    31     39      1 ;    C31 - C39   
    31     40      1 ;    C31 - H40   
    31     42      1 ;    C31 - C42   
    32     33      1 ;    H32 - C33   
    32     35      1 ;    H32 - C35   
    33     37      1 ;    C33 - N37   
    33     38      1 ;    C33 - N38   
    33     41      1 ;    C33 - H41   
    34     36      1 ;    H34 - N36   
    35     36      1 ;    C35 - N36   
    35     41      1 ;    C35 - H41   
    35     43      1 ;    C35 - C43   
    35     44      1 ;    C35 - C44   
    37     40      1 ;    N37 - H40   
    37     42      1 ;    N37 - C42   
    38     39      1 ;    N38 - C39   
    38     45      1 ;    N38 - C45   
    38     46      1 ;    N38 - H46   
    38     47      1 ;    N38 - C47   
    38     48      1 ;    N38 - H48   
    40     43      1 ;    H40 - C43   
    40     44      1 ;    H40 - C44   
    42     49      1 ;    C42 - C49   
    42     50      1 ;    C42 - H50   
    42     51      1 ;    C42 - CL51  
    43     47      1 ;    C43 - C47   
    43     48      1 ;    C43 - H48   
    43     52      1 ;    C43 - O52   
    44     45      1 ;    C44 - C45   
    44     46      1 ;    C44 - H46   
    44     52      1 ;    C44 - O52   
    45     51      1 ;    C45 - CL51  
    45     53      1 ;    C45 - C53   
    46     49      1 ;    H46 - C49   
    46     50      1 ;    H46 - H50   
    47     50      1 ;    C47 - H50   
    47     53      1 ;    C47 - C53   
    48     49      1 ;    H48 - C49   
    48     51      1 ;    H48 - CL51  
    49     54      1 ;    C49 - H54   
    49     55      1 ;    C49 - H55   
    49     56      1 ;    C49 - C56   
    50     52      1 ;    H50 - O52   
    51     52      1 ;   CL51 - O52   
    52     57      1 ;    O52 - C57   
    52     58      1 ;    O52 - C58   
    53     59      1 ;    C53 - C59   
    53     60      1 ;    C53 - H60   
    53     61      1 ;    C53 - C61   
    53     62      1 ;    C53 - H62   
    54     57      1 ;    H54 - C57   
    54     58      1 ;    H54 - C58   
    55     57      1 ;    H55 - C57   
    55     58      1 ;    H55 - C58   
    56     63      1 ;    C56 - C63   
    56     64      1 ;    C56 - H64   
    56     65      1 ;    C56 - F65   
    57     61      1 ;    C57 - C61   
    57     62      1 ;    C57 - H62   
    57     66      1 ;    C57 - H66   
    58     59      1 ;    C58 - C59   
    58     60      1 ;    C58 - H60   
    58     66      1 ;    C58 - H66   
    59     65      1 ;    C59 - F65   
    60     63      1 ;    H60 - C63   
    60     64      1 ;    H60 - H64   
    61     64      1 ;    C61 - H64   
    62     63      1 ;    H62 - C63   
    62     65      1 ;    H62 - F65   
    64     66      1 ;    H64 - H66   
    65     66      1 ;    F65 - H66   

[ angles ]
;   ai     aj     ak    funct   theta         cth
     1      2      3      1    1.1419e+02    5.7070e+02 ;     C1 - C2     - C3    
     1      2      6      1    1.2176e+02    4.0585e+02 ;     C1 - C2     - H6    
     1      5      4      1    1.0672e+02    5.6651e+02 ;     C1 - O5     - C4    
     1      8      9      1    1.0964e+02    3.9664e+02 ;     C1 - C8     - H9    
     1      8     10      1    1.0964e+02    3.9664e+02 ;     C1 - C8     - H10   
     1      8     11      1    1.1109e+02    5.5982e+02 ;     C1 - C8     - N11   
     2      1      5      1    1.2030e+02    5.8660e+02 ;     C2 - C1     - O5    
     2      1      8      1    1.1945e+02    5.4141e+02 ;     C2 - C1     - C8    
     2      3      4      1    1.1419e+02    5.7070e+02 ;     C2 - C3     - C4    
     2      3      7      1    1.2107e+02    3.9413e+02 ;     C2 - C3     - H7    
     3      2      6      1    1.2107e+02    3.9413e+02 ;     C3 - C2     - H6    
     3      4      5      1    1.2030e+02    5.8660e+02 ;     C3 - C4     - O5    
     3      4     26      1    1.1351e+02    5.6568e+02 ;     C3 - C4     - C26   
     4      3      7      1    1.2176e+02    4.0585e+02 ;     C4 - C3     - H7    
     4     26     27      1    1.2079e+02    5.4392e+02 ;     C4 - C26    - C27   
     4     26     28      1    1.2079e+02    5.4392e+02 ;     C4 - C26    - C28   
     5      1      8      1    1.1680e+02    5.6568e+02 ;     O5 - C1     - C8    
     5      4     26      1    1.1475e+02    5.8158e+02 ;     O5 - C4     - C26   
     8     11     12      1    1.0929e+02    3.9664e+02 ;     C8 - N11    - H12   
     8     11     13      1    1.1235e+02    5.3388e+02 ;     C8 - N11    - C13   
     9      8     10      1    1.0846e+02    3.2803e+02 ;     H9 - C8     - H10   
     9      8     11      1    1.0988e+02    4.1422e+02 ;     H9 - C8     - N11   
    10      8     11      1    1.0988e+02    4.1422e+02 ;    H10 - C8     - N11   
    11     13     14      1    1.0988e+02    4.1422e+02 ;    N11 - C13    - H14   
    11     13     15      1    1.0988e+02    4.1422e+02 ;    N11 - C13    - H15   
    11     13     16      1    1.1104e+02    5.5229e+02 ;    N11 - C13    - C16   
    12     11     13      1    1.0929e+02    3.9664e+02 ;    H12 - N11    - C13   
    13     16     17      1    1.0956e+02    3.8828e+02 ;    C13 - C16    - H17   
    13     16     18      1    1.0956e+02    3.8828e+02 ;    C13 - C16    - H18   
    13     16     19      1    1.1022e+02    5.1965e+02 ;    C13 - C16    - S19   
    14     13     15      1    1.0846e+02    3.2803e+02 ;    H14 - C13    - H15   
    14     13     16      1    1.0956e+02    3.8828e+02 ;    H14 - C13    - C16   
    15     13     16      1    1.0956e+02    3.8828e+02 ;    H15 - C13    - C16   
    16     19     20      1    1.0383e+02    5.0124e+02 ;    C16 - S19    - C20   
    16     19     24      1    1.0861e+02    5.4727e+02 ;    C16 - S19    - O24   
    16     19     25      1    1.0861e+02    5.4727e+02 ;    C16 - S19    - O25   
    17     16     18      1    1.0846e+02    3.2803e+02 ;    H17 - C16    - H18   
    17     16     19      1    1.0715e+02    3.6150e+02 ;    H17 - C16    - S19   
    18     16     19      1    1.0715e+02    3.6150e+02 ;    H18 - C16    - S19   
    19     20     21      1    1.0715e+02    3.6150e+02 ;    S19 - C20    - H21   
    19     20     22      1    1.0715e+02    3.6150e+02 ;    S19 - C20    - H22   
    19     20     23      1    1.0715e+02    3.6150e+02 ;    S19 - C20    - H23   
    20     19     24      1    1.0861e+02    5.4727e+02 ;    C20 - S19    - O24   
    20     19     25      1    1.0861e+02    5.4727e+02 ;    C20 - S19    - O25   
    21     20     22      1    1.0846e+02    3.2803e+02 ;    H21 - C20    - H22   
    21     20     23      1    1.0846e+02    3.2803e+02 ;    H21 - C20    - H23   
    22     20     23      1    1.0846e+02    3.2803e+02 ;    H22 - C20    - H23   
    24     19     25      1    1.2005e+02    6.1588e+02 ;    O24 - S19    - O25   
    26     27     29      1    1.2002e+02    5.5731e+02 ;    C26 - C27    - C29   
    26     27     30      1    1.1988e+02    4.0334e+02 ;    C26 - C27    - H30   
    26     28     31      1    1.2002e+02    5.5731e+02 ;    C26 - C28    - C31   
    26     28     32      1    1.1988e+02    4.0334e+02 ;    C26 - C28    - H32   
    27     26     28      1    1.2002e+02    5.5731e+02 ;    C27 - C26    - C28   
    27     29     33      1    1.2002e+02    5.5731e+02 ;    C27 - C29    - C33   
    27     29     34      1    1.1988e+02    4.0334e+02 ;    C27 - C29    - H34   
    28     31     33      1    1.2002e+02    5.5731e+02 ;    C28 - C31    - C33   
    28     31     35      1    1.2002e+02    5.5731e+02 ;    C28 - C31    - C35   
    29     27     30      1    1.1988e+02    4.0334e+02 ;    C29 - C27    - H30   
    29     33     31      1    1.2002e+02    5.5731e+02 ;    C29 - C33    - C31   
    29     33     36      1    1.2294e+02    5.7572e+02 ;    C29 - C33    - N36   
    31     28     32      1    1.1988e+02    4.0334e+02 ;    C31 - C28    - H32   
    31     33     36      1    1.2294e+02    5.7572e+02 ;    C31 - C33    - N36   
    31     35     37      1    1.2294e+02    5.7572e+02 ;    C31 - C35    - N37   
    31     35     38      1    1.2095e+02    5.7153e+02 ;    C31 - C35    - N38   
    33     29     34      1    1.1988e+02    4.0334e+02 ;    C33 - C29    - H34   
    33     31     35      1    1.2002e+02    5.5731e+02 ;    C33 - C31    - C35   
    33     36     39      1    1.1722e+02    5.7153e+02 ;    C33 - N36    - C39   
    35     37     39      1    1.1722e+02    5.7153e+02 ;    C35 - N37    - C39   
    35     38     40      1    1.1607e+02    4.0501e+02 ;    C35 - N38    - H40   
    35     38     42      1    1.2746e+02    5.2969e+02 ;    C35 - N38    - C42   
    36     39     37      1    1.2726e+02    5.9329e+02 ;    N36 - C39    - N37   
    36     39     41      1    1.1582e+02    4.3430e+02 ;    N36 - C39    - H41   
    37     35     38      1    1.1694e+02    6.0835e+02 ;    N37 - C35    - N38   
    37     39     41      1    1.1582e+02    4.3430e+02 ;    N37 - C39    - H41   
    38     42     43      1    1.2095e+02    5.7153e+02 ;    N38 - C42    - C43   
    38     42     44      1    1.2095e+02    5.7153e+02 ;    N38 - C42    - C44   
    40     38     42      1    1.1607e+02    4.0501e+02 ;    H40 - N38    - C42   
    42     43     45      1    1.2002e+02    5.5731e+02 ;    C42 - C43    - C45   
    42     43     46      1    1.1988e+02    4.0334e+02 ;    C42 - C43    - H46   
    42     44     47      1    1.2002e+02    5.5731e+02 ;    C42 - C44    - C47   
    42     44     48      1    1.1988e+02    4.0334e+02 ;    C42 - C44    - H48   
    43     42     44      1    1.2002e+02    5.5731e+02 ;    C43 - C42    - C44   
    43     45     49      1    1.2002e+02    5.5731e+02 ;    C43 - C45    - C49   
    43     45     50      1    1.1988e+02    4.0334e+02 ;    C43 - C45    - H50   
    44     47     49      1    1.2002e+02    5.5731e+02 ;    C44 - C47    - C49   
    44     47     51      1    1.1939e+02    4.8451e+02 ;    C44 - C47    - CL51  
    45     43     46      1    1.1988e+02    4.0334e+02 ;    C45 - C43    - H46   
    45     49     47      1    1.2002e+02    5.5731e+02 ;    C45 - C49    - C47   
    45     49     52      1    1.1920e+02    5.8241e+02 ;    C45 - C49    - O52   
    47     44     48      1    1.1988e+02    4.0334e+02 ;    C47 - C44    - H48   
    47     49     52      1    1.1920e+02    5.8241e+02 ;    C47 - C49    - O52   
    49     45     50      1    1.1988e+02    4.0334e+02 ;    C49 - C45    - H50   
    49     47     51      1    1.1939e+02    4.8451e+02 ;    C49 - C47    - CL51  
    49     52     53      1    1.1796e+02    5.2300e+02 ;    C49 - O52    - C53   
    52     53     54      1    1.0978e+02    4.2509e+02 ;    O52 - C53    - H54   
    52     53     55      1    1.0978e+02    4.2509e+02 ;    O52 - C53    - H55   
    52     53     56      1    1.0895e+02    5.7153e+02 ;    O52 - C53    - C56   
    53     56     57      1    1.2077e+02    5.3137e+02 ;    C53 - C56    - C57   
    53     56     58      1    1.2077e+02    5.3137e+02 ;    C53 - C56    - C58   
    54     53     55      1    1.0846e+02    3.2803e+02 ;    H54 - C53    - H55   
    54     53     56      1    1.0956e+02    3.9330e+02 ;    H54 - C53    - C56   
    55     53     56      1    1.0956e+02    3.9330e+02 ;    H55 - C53    - C56   
    56     57     59      1    1.2002e+02    5.5731e+02 ;    C56 - C57    - C59   
    56     57     60      1    1.1988e+02    4.0334e+02 ;    C56 - C57    - H60   
    56     58     61      1    1.2002e+02    5.5731e+02 ;    C56 - C58    - C61   
    56     58     62      1    1.1988e+02    4.0334e+02 ;    C56 - C58    - H62   
    57     56     58      1    1.2002e+02    5.5731e+02 ;    C57 - C56    - C58   
    57     59     63      1    1.2002e+02    5.5731e+02 ;    C57 - C59    - C63   
    57     59     64      1    1.1988e+02    4.0334e+02 ;    C57 - C59    - H64   
    58     61     63      1    1.2002e+02    5.5731e+02 ;    C58 - C61    - C63   
    58     61     65      1    1.1896e+02    5.6149e+02 ;    C58 - C61    - F65   
    59     57     60      1    1.1988e+02    4.0334e+02 ;    C59 - C57    - H60   
    59     63     61      1    1.2002e+02    5.5731e+02 ;    C59 - C63    - C61   
    59     63     66      1    1.1988e+02    4.0334e+02 ;    C59 - C63    - H66   
    61     58     62      1    1.1988e+02    4.0334e+02 ;    C61 - C58    - H62   
    61     63     66      1    1.1988e+02    4.0334e+02 ;    C61 - C63    - H66   
    63     59     64      1    1.1988e+02    4.0334e+02 ;    C63 - C59    - H64   
    63     61     65      1    1.1896e+02    5.6149e+02 ;    C63 - C61    - F65   

[ dihedrals ] ; propers
; treated as RBs in GROMACS to use combine multiple AMBER torsions per quartet
;    i      j      k      l   func    C0         C1         C2         C3         C4         C5
     1      2      3      4      3   33.47200    0.00000  -33.47200    0.00000    0.00000    0.00000 ;     C1-    C2-    C3-    C4
     1      2      3      7      3   33.47200    0.00000  -33.47200    0.00000    0.00000    0.00000 ;     C1-    C2-    C3-    H7
     1      5      4      3      3    8.78640    0.00000   -8.78640    0.00000    0.00000    0.00000 ;     C1-    O5-    C4-    C3
     1      5      4     26      3    8.78640    0.00000   -8.78640    0.00000    0.00000    0.00000 ;     C1-    O5-    C4-   C26
     1      8     11     12      3    1.25520    3.76560    0.00000   -5.02080    0.00000    0.00000 ;     C1-    C8-   N11-   H12
     1      8     11     13      3    1.25520    3.76560    0.00000   -5.02080    0.00000    0.00000 ;     C1-    C8-   N11-   C13
     2      1      5      4      3    8.78640    0.00000   -8.78640    0.00000    0.00000    0.00000 ;     C2-    C1-    O5-    C4
     2      1      8      9      3    0.00000    0.00000    0.00000    0.00000    0.00000    0.00000 ;     C2-    C1-    C8-    H9
     2      1      8     10      3    0.00000    0.00000    0.00000    0.00000    0.00000    0.00000 ;     C2-    C1-    C8-   H10
     2      1      8     11      3    0.00000    0.00000    0.00000    0.00000    0.00000    0.00000 ;     C2-    C1-    C8-   N11
     2      3      4      5      3   33.47200    0.00000  -33.47200    0.00000    0.00000    0.00000 ;     C2-    C3-    C4-    O5
     2      3      4     26      3   33.47200    0.00000  -33.47200    0.00000    0.00000    0.00000 ;     C2-    C3-    C4-   C26
     3      4     26     27      3    5.85760    0.00000   -5.85760    0.00000    0.00000    0.00000 ;     C3-    C4-   C26-   C27
     3      4     26     28      3    5.85760    0.00000   -5.85760    0.00000    0.00000    0.00000 ;     C3-    C4-   C26-   C28
     4      3      2      6      3   33.47200    0.00000  -33.47200    0.00000    0.00000    0.00000 ;     C4-    C3-    C2-    H6
     4     26     27     29      3   30.33400    0.00000  -30.33400    0.00000    0.00000    0.00000 ;     C4-   C26-   C27-   C29
     4     26     27     30      3   30.33400    0.00000  -30.33400    0.00000    0.00000    0.00000 ;     C4-   C26-   C27-   H30
     4     26     28     31      3   30.33400    0.00000  -30.33400    0.00000    0.00000    0.00000 ;     C4-   C26-   C28-   C31
     4     26     28     32      3   30.33400    0.00000  -30.33400    0.00000    0.00000    0.00000 ;     C4-   C26-   C28-   H32
     5      1      2      3      3   33.47200    0.00000  -33.47200    0.00000    0.00000    0.00000 ;     O5-    C1-    C2-    C3
     5      1      2      6      3   33.47200    0.00000  -33.47200    0.00000    0.00000    0.00000 ;     O5-    C1-    C2-    H6
     5      1      8      9      3    0.00000    0.00000    0.00000    0.00000    0.00000    0.00000 ;     O5-    C1-    C8-    H9
     5      1      8     10      3    0.00000    0.00000    0.00000    0.00000    0.00000    0.00000 ;     O5-    C1-    C8-   H10
     5      1      8     11      3    0.00000    0.00000    0.00000    0.00000    0.00000    0.00000 ;     O5-    C1-    C8-   N11
     5      4      3      7      3   33.47200    0.00000  -33.47200    0.00000    0.00000    0.00000 ;     O5-    C4-    C3-    H7
     5      4     26     27      3    5.85760    0.00000   -5.85760    0.00000    0.00000    0.00000 ;     O5-    C4-   C26-   C27
     5      4     26     28      3    5.85760    0.00000   -5.85760    0.00000    0.00000    0.00000 ;     O5-    C4-   C26-   C28
     6      2      3      7      3   33.47200    0.00000  -33.47200    0.00000    0.00000    0.00000 ;     H6-    C2-    C3-    H7
     7      3      4     26      3   33.47200    0.00000  -33.47200    0.00000    0.00000    0.00000 ;     H7-    C3-    C4-   C26
     8      1      2      3      3   33.47200    0.00000  -33.47200    0.00000    0.00000    0.00000 ;     C8-    C1-    C2-    C3
     8      1      2      6      3   33.47200    0.00000  -33.47200    0.00000    0.00000    0.00000 ;     C8-    C1-    C2-    H6
     8      1      5      4      3    8.78640    0.00000   -8.78640    0.00000    0.00000    0.00000 ;     C8-    C1-    O5-    C4
     8     11     13     14      3    1.25520    3.76560    0.00000   -5.02080    0.00000    0.00000 ;     C8-   N11-   C13-   H14
     8     11     13     15      3    1.25520    3.76560    0.00000   -5.02080    0.00000    0.00000 ;     C8-   N11-   C13-   H15
     8     11     13     16      3    5.27184    3.76560   -4.01664   -5.02080    0.00000    0.00000 ;     C8-   N11-   C13-   C16
     9      8     11     12      3    1.25520    3.76560    0.00000   -5.02080    0.00000    0.00000 ;     H9-    C8-   N11-   H12
     9      8     11     13      3    1.25520    3.76560    0.00000   -5.02080    0.00000    0.00000 ;     H9-    C8-   N11-   C13
    10      8     11     12      3    1.25520    3.76560    0.00000   -5.02080    0.00000    0.00000 ;    H10-    C8-   N11-   H12
    10      8     11     13      3    1.25520    3.76560    0.00000   -5.02080    0.00000    0.00000 ;    H10-    C8-   N11-   C13
    11     13     16     17      3    0.65084    1.95253    0.00000   -2.60338    0.00000    0.00000 ;    N11-   C13-   C16-   H17
    11     13     16     18      3    0.65084    1.95253    0.00000   -2.60338    0.00000    0.00000 ;    N11-   C13-   C16-   H18
    11     13     16     19      3    0.65084    1.95253    0.00000   -2.60338    0.00000    0.00000 ;    N11-   C13-   C16-   S19
    12     11     13     14      3    1.25520    3.76560    0.00000   -5.02080    0.00000    0.00000 ;    H12-   N11-   C13-   H14
    12     11     13     15      3    1.25520    3.76560    0.00000   -5.02080    0.00000    0.00000 ;    H12-   N11-   C13-   H15
    12     11     13     16      3    1.25520    3.76560    0.00000   -5.02080    0.00000    0.00000 ;    H12-   N11-   C13-   C16
    13     16     19     20      3    0.60436    1.81307    0.00000   -2.41742    0.00000    0.00000 ;    C13-   C16-   S19-   C20
    13     16     19     24      3    0.60436    1.81307    0.00000   -2.41742    0.00000    0.00000 ;    C13-   C16-   S19-   O24
    13     16     19     25      3    0.60436    1.81307    0.00000   -2.41742    0.00000    0.00000 ;    C13-   C16-   S19-   O25
    14     13     16     17      3    0.65084    1.95253    0.00000   -2.60338    0.00000    0.00000 ;    H14-   C13-   C16-   H17
    14     13     16     18      3    0.65084    1.95253    0.00000   -2.60338    0.00000    0.00000 ;    H14-   C13-   C16-   H18
    14     13     16     19      3    0.65084    1.95253    0.00000   -2.60338    0.00000    0.00000 ;    H14-   C13-   C16-   S19
    15     13     16     17      3    0.65084    1.95253    0.00000   -2.60338    0.00000    0.00000 ;    H15-   C13-   C16-   H17
    15     13     16     18      3    0.65084    1.95253    0.00000   -2.60338    0.00000    0.00000 ;    H15-   C13-   C16-   H18
    15     13     16     19      3    0.65084    1.95253    0.00000   -2.60338    0.00000    0.00000 ;    H15-   C13-   C16-   S19
    16     19     20     21      3    0.60436    1.81307    0.00000   -2.41742    0.00000    0.00000 ;    C16-   S19-   C20-   H21
    16     19     20     22      3    0.60436    1.81307    0.00000   -2.41742    0.00000    0.00000 ;    C16-   S19-   C20-   H22
    16     19     20     23      3    0.60436    1.81307    0.00000   -2.41742    0.00000    0.00000 ;    C16-   S19-   C20-   H23
    17     16     19     20      3    0.60436    1.81307    0.00000   -2.41742    0.00000    0.00000 ;    H17-   C16-   S19-   C20
    17     16     19     24      3    0.60436    1.81307    0.00000   -2.41742    0.00000    0.00000 ;    H17-   C16-   S19-   O24
    17     16     19     25      3    0.60436    1.81307    0.00000   -2.41742    0.00000    0.00000 ;    H17-   C16-   S19-   O25
    18     16     19     20      3    0.60436    1.81307    0.00000   -2.41742    0.00000    0.00000 ;    H18-   C16-   S19-   C20
    18     16     19     24      3    0.60436    1.81307    0.00000   -2.41742    0.00000    0.00000 ;    H18-   C16-   S19-   O24
    18     16     19     25      3    0.60436    1.81307    0.00000   -2.41742    0.00000    0.00000 ;    H18-   C16-   S19-   O25
    21     20     19     24      3    0.60436    1.81307    0.00000   -2.41742    0.00000    0.00000 ;    H21-   C20-   S19-   O24
    21     20     19     25      3    0.60436    1.81307    0.00000   -2.41742    0.00000    0.00000 ;    H21-   C20-   S19-   O25
    22     20     19     24      3    0.60436    1.81307    0.00000   -2.41742    0.00000    0.00000 ;    H22-   C20-   S19-   O24
    22     20     19     25      3    0.60436    1.81307    0.00000   -2.41742    0.00000    0.00000 ;    H22-   C20-   S19-   O25
    23     20     19     24      3    0.60436    1.81307    0.00000   -2.41742    0.00000    0.00000 ;    H23-   C20-   S19-   O24
    23     20     19     25      3    0.60436    1.81307    0.00000   -2.41742    0.00000    0.00000 ;    H23-   C20-   S19-   O25
    26     27     29     33      3   30.33400    0.00000  -30.33400    0.00000    0.00000    0.00000 ;    C26-   C27-   C29-   C33
    26     27     29     34      3   30.33400    0.00000  -30.33400    0.00000    0.00000    0.00000 ;    C26-   C27-   C29-   H34
    26     28     31     33      3   30.33400    0.00000  -30.33400    0.00000    0.00000    0.00000 ;    C26-   C28-   C31-   C33
    26     28     31     35      3   30.33400    0.00000  -30.33400    0.00000    0.00000    0.00000 ;    C26-   C28-   C31-   C35
    27     26     28     31      3   30.33400    0.00000  -30.33400    0.00000    0.00000    0.00000 ;    C27-   C26-   C28-   C31
    27     26     28     32      3   30.33400    0.00000  -30.33400    0.00000    0.00000    0.00000 ;    C27-   C26-   C28-   H32
    27     29     33     31      3   30.33400    0.00000  -30.33400    0.00000    0.00000    0.00000 ;    C27-   C29-   C33-   C31
    27     29     33     36      3   30.33400    0.00000  -30.33400    0.00000    0.00000    0.00000 ;    C27-   C29-   C33-   N36
    28     26     27     29      3   30.33400    0.00000  -30.33400    0.00000    0.00000    0.00000 ;    C28-   C26-   C27-   C29
    28     26     27     30      3   30.33400    0.00000  -30.33400    0.00000    0.00000    0.00000 ;    C28-   C26-   C27-   H30
    28     31     33     29      3   30.33400    0.00000  -30.33400    0.00000    0.00000    0.00000 ;    C28-   C31-   C33-   C29
    28     31     33     36      3   30.33400    0.00000  -30.33400    0.00000    0.00000    0.00000 ;    C28-   C31-   C33-   N36
    28     31     35     37      3   30.33400    0.00000  -30.33400    0.00000    0.00000    0.00000 ;    C28-   C31-   C35-   N37
    28     31     35     38      3   30.33400    0.00000  -30.33400    0.00000    0.00000    0.00000 ;    C28-   C31-   C35-   N38
    29     33     31     35      3   30.33400    0.00000  -30.33400    0.00000    0.00000    0.00000 ;    C29-   C33-   C31-   C35
    29     33     36     39      3   40.16640    0.00000  -40.16640    0.00000    0.00000    0.00000 ;    C29-   C33-   N36-   C39
    30     27     29     33      3   30.33400    0.00000  -30.33400    0.00000    0.00000    0.00000 ;    H30-   C27-   C29-   C33
    30     27     29     34      3   30.33400    0.00000  -30.33400    0.00000    0.00000    0.00000 ;    H30-   C27-   C29-   H34
    31     33     29     34      3   30.33400    0.00000  -30.33400    0.00000    0.00000    0.00000 ;    C31-   C33-   C29-   H34
    31     33     36     39      3   40.16640    0.00000  -40.16640    0.00000    0.00000    0.00000 ;    C31-   C33-   N36-   C39
    31     35     37     39      3   40.16640    0.00000  -40.16640    0.00000    0.00000    0.00000 ;    C31-   C35-   N37-   C39
    31     35     38     40      3    8.78640    0.00000   -8.78640    0.00000    0.00000    0.00000 ;    C31-   C35-   N38-   H40
    31     35     38     42      3    8.78640    0.00000   -8.78640    0.00000    0.00000    0.00000 ;    C31-   C35-   N38-   C42
    32     28     31     33      3   30.33400    0.00000  -30.33400    0.00000    0.00000    0.00000 ;    H32-   C28-   C31-   C33
    32     28     31     35      3   30.33400    0.00000  -30.33400    0.00000    0.00000    0.00000 ;    H32-   C28-   C31-   C35
    33     31     35     37      3   30.33400    0.00000  -30.33400    0.00000    0.00000    0.00000 ;    C33-   C31-   C35-   N37
    33     31     35     38      3   30.33400    0.00000  -30.33400    0.00000    0.00000    0.00000 ;    C33-   C31-   C35-   N38
    33     36     39     37      3   40.16640    0.00000  -40.16640    0.00000    0.00000    0.00000 ;    C33-   N36-   C39-   N37
    33     36     39     41      3   40.16640    0.00000  -40.16640    0.00000    0.00000    0.00000 ;    C33-   N36-   C39-   H41
    34     29     33     36      3   30.33400    0.00000  -30.33400    0.00000    0.00000    0.00000 ;    H34-   C29-   C33-   N36
    35     31     33     36      3   30.33400    0.00000  -30.33400    0.00000    0.00000    0.00000 ;    C35-   C31-   C33-   N36
    35     37     39     36      3   40.16640    0.00000  -40.16640    0.00000    0.00000    0.00000 ;    C35-   N37-   C39-   N36
    35     37     39     41      3   40.16640    0.00000  -40.16640    0.00000    0.00000    0.00000 ;    C35-   N37-   C39-   H41
    35     38     42     43      3    8.78640    0.00000   -8.78640    0.00000    0.00000    0.00000 ;    C35-   N38-   C42-   C43
    35     38     42     44      3    8.78640    0.00000   -8.78640    0.00000    0.00000    0.00000 ;    C35-   N38-   C42-   C44
    37     35     38     40      3    8.78640    0.00000   -8.78640    0.00000    0.00000    0.00000 ;    N37-   C35-   N38-   H40
    37     35     38     42      3    8.78640    0.00000   -8.78640    0.00000    0.00000    0.00000 ;    N37-   C35-   N38-   C42
    38     35     37     39      3   40.16640    0.00000  -40.16640    0.00000    0.00000    0.00000 ;    N38-   C35-   N37-   C39
    38     42     43     45      3   30.33400    0.00000  -30.33400    0.00000    0.00000    0.00000 ;    N38-   C42-   C43-   C45
    38     42     43     46      3   30.33400    0.00000  -30.33400    0.00000    0.00000    0.00000 ;    N38-   C42-   C43-   H46
    38     42     44     47      3   30.33400    0.00000  -30.33400    0.00000    0.00000    0.00000 ;    N38-   C42-   C44-   C47
    38     42     44     48      3   30.33400    0.00000  -30.33400    0.00000    0.00000    0.00000 ;    N38-   C42-   C44-   H48
    40     38     42     43      3    8.78640    0.00000   -8.78640    0.00000    0.00000    0.00000 ;    H40-   N38-   C42-   C43
    40     38     42     44      3    8.78640    0.00000   -8.78640    0.00000    0.00000    0.00000 ;    H40-   N38-   C42-   C44
    42     43     45     49      3   30.33400    0.00000  -30.33400    0.00000    0.00000    0.00000 ;    C42-   C43-   C45-   C49
    42     43     45     50      3   30.33400    0.00000  -30.33400    0.00000    0.00000    0.00000 ;    C42-   C43-   C45-   H50
    42     44     47     49      3   30.33400    0.00000  -30.33400    0.00000    0.00000    0.00000 ;    C42-   C44-   C47-   C49
    42     44     47     51      3   30.33400    0.00000  -30.33400    0.00000    0.00000    0.00000 ;    C42-   C44-   C47-  CL51
    43     42     44     47      3   30.33400    0.00000  -30.33400    0.00000    0.00000    0.00000 ;    C43-   C42-   C44-   C47
    43     42     44     48      3   30.33400    0.00000  -30.33400    0.00000    0.00000    0.00000 ;    C43-   C42-   C44-   H48
    43     45     49     47      3   30.33400    0.00000  -30.33400    0.00000    0.00000    0.00000 ;    C43-   C45-   C49-   C47
    43     45     49     52      3   30.33400    0.00000  -30.33400    0.00000    0.00000    0.00000 ;    C43-   C45-   C49-   O52
    44     42     43     45      3   30.33400    0.00000  -30.33400    0.00000    0.00000    0.00000 ;    C44-   C42-   C43-   C45
    44     42     43     46      3   30.33400    0.00000  -30.33400    0.00000    0.00000    0.00000 ;    C44-   C42-   C43-   H46
    44     47     49     45      3   30.33400    0.00000  -30.33400    0.00000    0.00000    0.00000 ;    C44-   C47-   C49-   C45
    44     47     49     52      3   30.33400    0.00000  -30.33400    0.00000    0.00000    0.00000 ;    C44-   C47-   C49-   O52
    45     49     47     51      3   30.33400    0.00000  -30.33400    0.00000    0.00000    0.00000 ;    C45-   C49-   C47-  CL51
    45     49     52     53      3    7.53120    0.00000   -7.53120    0.00000    0.00000    0.00000 ;    C45-   C49-   O52-   C53
    46     43     45     49      3   30.33400    0.00000  -30.33400    0.00000    0.00000    0.00000 ;    H46-   C43-   C45-   C49
    46     43     45     50      3   30.33400    0.00000  -30.33400    0.00000    0.00000    0.00000 ;    H46-   C43-   C45-   H50
    47     49     45     50      3   30.33400    0.00000  -30.33400    0.00000    0.00000    0.00000 ;    C47-   C49-   C45-   H50
    47     49     52     53      3    7.53120    0.00000   -7.53120    0.00000    0.00000    0.00000 ;    C47-   C49-   O52-   C53
    48     44     47     49      3   30.33400    0.00000  -30.33400    0.00000    0.00000    0.00000 ;    H48-   C44-   C47-   C49
    48     44     47     51      3   30.33400    0.00000  -30.33400    0.00000    0.00000    0.00000 ;    H48-   C44-   C47-  CL51
    49     52     53     54      3    1.60387    4.81160    0.00000   -6.41547    0.00000    0.00000 ;    C49-   O52-   C53-   H54
    49     52     53     55      3    1.60387    4.81160    0.00000   -6.41547    0.00000    0.00000 ;    C49-   O52-   C53-   H55
    49     52     53     56      3    1.60387    4.81160    0.00000   -6.41547    0.00000    0.00000 ;    C49-   O52-   C53-   C56
    50     45     49     52      3   30.33400    0.00000  -30.33400    0.00000    0.00000    0.00000 ;    H50-   C45-   C49-   O52
    51     47     49     52      3   30.33400    0.00000  -30.33400    0.00000    0.00000    0.00000 ;   CL51-   C47-   C49-   O52
    52     53     56     57      3    0.00000    0.00000    0.00000    0.00000    0.00000    0.00000 ;    O52-   C53-   C56-   C57
    52     53     56     58      3    0.00000    0.00000    0.00000    0.00000    0.00000    0.00000 ;    O52-   C53-   C56-   C58
    53     56     57     59      3   30.33400    0.00000  -30.33400    0.00000    0.00000    0.00000 ;    C53-   C56-   C57-   C59
    53     56     57     60      3   30.33400    0.00000  -30.33400    0.00000    0.00000    0.00000 ;    C53-   C56-   C57-   H60
    53     56     58     61      3   30.33400    0.00000  -30.33400    0.00000    0.00000    0.00000 ;    C53-   C56-   C58-   C61
    53     56     58     62      3   30.33400    0.00000  -30.33400    0.00000    0.00000    0.00000 ;    C53-   C56-   C58-   H62
    54     53     56     57      3    0.00000    0.00000    0.00000    0.00000    0.00000    0.00000 ;    H54-   C53-   C56-   C57
    54     53     56     58      3    0.00000    0.00000    0.00000    0.00000    0.00000    0.00000 ;    H54-   C53-   C56-   C58
    55     53     56     57      3    0.00000    0.00000    0.00000    0.00000    0.00000    0.00000 ;    H55-   C53-   C56-   C57
    55     53     56     58      3    0.00000    0.00000    0.00000    0.00000    0.00000    0.00000 ;    H55-   C53-   C56-   C58
    56     57     59     63      3   30.33400    0.00000  -30.33400    0.00000    0.00000    0.00000 ;    C56-   C57-   C59-   C63
    56     57     59     64      3   30.33400    0.00000  -30.33400    0.00000    0.00000    0.00000 ;    C56-   C57-   C59-   H64
    56     58     61     63      3   30.33400    0.00000  -30.33400    0.00000    0.00000    0.00000 ;    C56-   C58-   C61-   C63
    56     58     61     65      3   30.33400    0.00000  -30.33400    0.00000    0.00000    0.00000 ;    C56-   C58-   C61-   F65
    57     56     58     61      3   30.33400    0.00000  -30.33400    0.00000    0.00000    0.00000 ;    C57-   C56-   C58-   C61
    57     56     58     62      3   30.33400    0.00000  -30.33400    0.00000    0.00000    0.00000 ;    C57-   C56-   C58-   H62
    57     59     63     61      3   30.33400    0.00000  -30.33400    0.00000    0.00000    0.00000 ;    C57-   C59-   C63-   C61
    57     59     63     66      3   30.33400    0.00000  -30.33400    0.00000    0.00000    0.00000 ;    C57-   C59-   C63-   H66
    58     56     57     59      3   30.33400    0.00000  -30.33400    0.00000    0.00000    0.00000 ;    C58-   C56-   C57-   C59
    58     56     57     60      3   30.33400    0.00000  -30.33400    0.00000    0.00000    0.00000 ;    C58-   C56-   C57-   H60
    58     61     63     59      3   30.33400    0.00000  -30.33400    0.00000    0.00000    0.00000 ;    C58-   C61-   C63-   C59
    58     61     63     66      3   30.33400    0.00000  -30.33400    0.00000    0.00000    0.00000 ;    C58-   C61-   C63-   H66
    59     63     61     65      3   30.33400    0.00000  -30.33400    0.00000    0.00000    0.00000 ;    C59-   C63-   C61-   F65
    60     57     59     63      3   30.33400    0.00000  -30.33400    0.00000    0.00000    0.00000 ;    H60-   C57-   C59-   C63
    60     57     59     64      3   30.33400    0.00000  -30.33400    0.00000    0.00000    0.00000 ;    H60-   C57-   C59-   H64
    61     63     59     64      3   30.33400    0.00000  -30.33400    0.00000    0.00000    0.00000 ;    C61-   C63-   C59-   H64
    62     58     61     63      3   30.33400    0.00000  -30.33400    0.00000    0.00000    0.00000 ;    H62-   C58-   C61-   C63
    62     58     61     65      3   30.33400    0.00000  -30.33400    0.00000    0.00000    0.00000 ;    H62-   C58-   C61-   F65
    64     59     63     66      3   30.33400    0.00000  -30.33400    0.00000    0.00000    0.00000 ;    H64-   C59-   C63-   H66
    65     61     63     66      3   30.33400    0.00000  -30.33400    0.00000    0.00000    0.00000 ;    F65-   C61-   C63-   H66

[ dihedrals ] ; impropers
; treated as propers in GROMACS to use correct AMBER analytical function
;    i      j      k      l   func   phase     kd      pn
     1      3      2      6      1   180.00   4.60240   2 ;     C1-    C3-    C2-    H6
     4      2      3      7      1   180.00   4.60240   2 ;     C4-    C2-    C3-    H7
     5      1      2      8      1   180.00   4.60240   2 ;     O5-    C1-    C2-    C8
    26      3      4      5      1   180.00   4.60240   2 ;    C26-    C3-    C4-    O5
    26     29     27     30      1   180.00   4.60240   2 ;    C26-   C29-   C27-   H30
    26     31     28     32      1   180.00   4.60240   2 ;    C26-   C31-   C28-   H32
    27     28     26      4      1   180.00   4.60240   2 ;    C27-   C28-   C26-    C4
    27     33     29     34      1   180.00   4.60240   2 ;    C27-   C33-   C29-   H34
    28     33     31     35      1   180.00   4.60240   2 ;    C28-   C33-   C31-   C35
    29     31     33     36      1   180.00   4.60240   2 ;    C29-   C31-   C33-   N36
    31     37     35     38      1   180.00   4.60240   2 ;    C31-   N37-   C35-   N38
    35     42     38     40      1   180.00   4.60240   2 ;    C35-   C42-   N38-   H40
    41     36     39     37      1   180.00   4.60240   2 ;    H41-   N36-   C39-   N37
    42     45     43     46      1   180.00   4.60240   2 ;    C42-   C45-   C43-   H46
    42     47     44     48      1   180.00   4.60240   2 ;    C42-   C47-   C44-   H48
    43     44     42     38      1   180.00   4.60240   2 ;    C43-   C44-   C42-   N38
    43     49     45     50      1   180.00   4.60240   2 ;    C43-   C49-   C45-   H50
    44     49     47     51      1   180.00   4.60240   2 ;    C44-   C49-   C47-  CL51
    45     47     49     52      1   180.00   4.60240   2 ;    C45-   C47-   C49-   O52
    56     59     57     60      1   180.00   4.60240   2 ;    C56-   C59-   C57-   H60
    56     61     58     62      1   180.00   4.60240   2 ;    C56-   C61-   C58-   H62
    57     58     56     53      1   180.00   4.60240   2 ;    C57-   C58-   C56-   C53
    57     63     59     64      1   180.00   4.60240   2 ;    C57-   C63-   C59-   H64
    58     63     61     65      1   180.00   4.60240   2 ;    C58-   C63-   C61-   F65
    59     61     63     66      1   180.00   4.60240   2 ;    C59-   C61-   C63-   H66
